VARIABLES="U","Y"
ZONE F=POINT
I=12
0.00991542	0.00000000
0.00383256	0.10000000
-0.00991540	0.20000000
-0.03605842	0.30000000
-0.07540637	0.40000001
-0.12725536	0.50000001
-0.18341349	0.60000001
-0.21057269	0.70000001
-0.13182579	0.80000001
0.14283485	0.90000001
0.62738947	1.00000001
1.37261055	1.10000002
