VARIABLES="X","Y","U","V","P"
ZONE  F=POINT
I=12, J=12
0.00000000	0.00000000	-0.00000000	0.00000000	1.00000000
0.10000000	0.00000000	0.00471973	-0.00000008	0.00000000
0.20000000	0.00000000	0.01037447	-0.00000007	0.00000000
0.30000000	0.00000000	0.01052004	-0.00000006	0.00000000
0.40000001	0.00000000	0.00878214	-0.00000004	0.00000000
0.50000001	0.00000000	0.01089711	-0.00000002	0.00000000
0.60000001	0.00000000	0.01126119	0.00000001	0.00000000
0.70000001	0.00000000	0.00856966	0.00000003	0.00000000
0.80000001	0.00000000	0.00476662	0.00000005	0.00000000
0.90000001	0.00000000	0.00095598	0.00000007	0.00000000
1.00000001	0.00000000	-0.00000000	0.00000007	0.00000000
1.10000002	0.00000000	-0.00000000	0.00000000	0.00000000
0.00000000	0.10000000	-0.00000008	-0.00049485	0.00000000
0.10000000	0.10000000	-0.00050951	0.00049485	-0.00325935
0.20000000	0.10000000	-0.00116457	0.00064185	-0.00320287
0.30000000	0.10000000	0.00072697	-0.00190214	-0.00277869
0.40000001	0.10000000	0.00550383	-0.00478387	-0.00274479
0.50000001	0.10000000	0.00585427	-0.00035324	-0.00441268
0.60000001	0.10000000	0.00396479	0.00189112	-0.00589966
0.70000001	0.10000000	0.00370033	0.00027032	-0.00661347
0.80000001	0.10000000	0.00412342	-0.00041364	-0.00736757
0.90000001	0.10000000	0.00224051	0.00189498	-0.00847685
1.00000001	0.10000000	-0.00000007	0.00225394	-0.00898431
1.10000002	0.10000000	0.00000000	-0.00225394	0.00000000
0.00000000	0.20000000	-0.00000008	-0.00520014	0.00000000
0.10000000	0.20000000	-0.00471972	0.00520015	-0.00292618
0.20000000	0.20000000	-0.01037446	0.00628360	-0.00306488
0.30000000	0.20000000	-0.01052002	-0.00176699	-0.00273654
0.40000001	0.20000000	-0.00878211	-0.00652866	-0.00315260
0.50000001	0.20000000	-0.01089708	0.00175901	-0.00498855
0.60000001	0.20000000	-0.01126117	0.00225687	-0.00644296
0.70000001	0.20000000	-0.00856964	-0.00241537	-0.00763696
0.80000001	0.20000000	-0.00476660	-0.00420728	-0.00866651
0.90000001	0.20000000	-0.00095597	-0.00190368	-0.00924331
1.00000001	0.20000000	-0.00000007	0.00131130	-0.00978993
1.10000002	0.20000000	0.00000000	-0.00131130	0.00000000
0.00000000	0.30000000	-0.00000008	-0.01413234	0.00000000
0.10000000	0.30000000	-0.00894643	0.01413234	-0.00347738
0.20000000	0.30000000	-0.02110924	0.01843360	-0.00380357
0.30000000	0.30000000	-0.02657854	0.00369205	-0.00326371
0.40000001	0.30000000	-0.03612193	0.00300798	-0.00486429
0.50000001	0.30000000	-0.04324621	0.00888068	-0.00662186
0.60000001	0.30000000	-0.04075885	-0.00022875	-0.00741355
0.70000001	0.30000000	-0.03135799	-0.01181033	-0.00817846
0.80000001	0.30000000	-0.01887636	-0.01667947	-0.00909329
0.90000001	0.30000000	-0.00655464	-0.01421337	-0.00996849
1.00000001	0.30000000	-0.00000007	-0.00522997	-0.01092894
1.10000002	0.30000000	0.00000000	0.00522997	0.00000000
0.00000000	0.40000001	-0.00000008	-0.02630564	0.00000000
0.10000000	0.40000001	-0.01218732	0.02630564	-0.00568829
0.20000000	0.40000001	-0.03170297	0.03793665	-0.00641381
0.30000000	0.40000001	-0.05171602	0.02369504	-0.00669424
0.40000001	0.40000001	-0.08061963	0.03190500	-0.00970990
0.50000001	0.40000001	-0.09266395	0.02092252	-0.01004489
0.60000001	0.40000001	-0.08479030	-0.00810054	-0.00895464
0.70000001	0.40000001	-0.06602243	-0.03057219	-0.00874251
0.80000001	0.40000001	-0.04141622	-0.04127612	-0.00930333
0.90000001	0.40000001	-0.01611651	-0.03950094	-0.01024298
1.00000001	0.40000001	-0.00000007	-0.02133300	-0.01163554
1.10000002	0.40000001	0.00000000	0.02133300	0.00000000
0.00000000	0.50000001	-0.00000008	-0.03921322	0.00000000
0.10000000	0.50000001	-0.01292138	0.03921322	-0.00996910
0.20000000	0.50000001	-0.03950127	0.06450416	-0.01163550
0.30000000	0.50000001	-0.08923497	0.07341888	-0.01568501
0.40000001	0.50000001	-0.13861784	0.08128147	-0.01828410
0.50000001	0.50000001	-0.15136940	0.03367178	-0.01508549
0.60000001	0.50000001	-0.14054225	-0.01892568	-0.01155226
0.70000001	0.50000001	-0.11396847	-0.05713981	-0.00918309
0.80000001	0.50000001	-0.07517796	-0.08005694	-0.00817941
0.90000001	0.50000001	-0.03159724	-0.08306938	-0.00842611
1.00000001	0.50000001	-0.00000007	-0.05291661	-0.00995734
1.10000002	0.50000001	0.00000000	0.05291661	0.00000000
0.00000000	0.60000001	-0.00000007	-0.05165707	0.00000000
0.10000000	0.60000001	-0.01245745	0.05165707	-0.01565767
0.20000000	0.60000001	-0.04909852	0.10113305	-0.01899356
0.30000000	0.60000001	-0.12865977	0.15297049	-0.02681377
0.40000001	0.60000001	-0.18357927	0.13619478	-0.02703068
0.50000001	0.60000001	-0.19970006	0.04979045	-0.02274695
0.60000001	0.60000001	-0.19627054	-0.02235300	-0.01697615
0.70000001	0.60000001	-0.17055643	-0.08284760	-0.00981083
0.80000001	0.60000001	-0.12036776	-0.13023575	-0.00338855
0.90000001	0.60000001	-0.05420301	-0.14922170	-0.00022292
1.00000001	0.60000001	-0.00000008	-0.10710582	-0.00092052
1.10000002	0.60000001	0.00000000	0.10710583	0.00000000
0.00000000	0.70000001	-0.00000007	-0.06777264	0.00000000
0.10000000	0.70000001	-0.01612901	0.06777264	-0.02108068
0.20000000	0.70000001	-0.06731708	0.15230911	-0.02621681
0.30000000	0.70000001	-0.13774636	0.22339031	-0.02998076
0.40000001	0.70000001	-0.17358998	0.17203242	-0.03136422
0.50000001	0.70000001	-0.19859540	0.07479398	-0.03317970
0.60000001	0.70000001	-0.21356518	-0.00738082	-0.02717482
0.70000001	0.70000001	-0.20758020	-0.08882608	-0.01272104
0.80000001	0.70000001	-0.16504915	-0.17275679	0.00711458
0.90000001	0.70000001	-0.08215209	-0.23210619	0.02294466
1.00000001	0.70000001	-0.00000008	-0.18924398	0.02679645
1.10000002	0.70000001	0.00000000	0.18924398	0.00000000
0.00000000	0.80000001	-0.00000007	-0.10558280	0.00000000
0.10000000	0.80000001	-0.03782352	0.10558280	-0.02498972
0.20000000	0.80000001	-0.08157310	0.19604678	-0.02486411
0.30000000	0.80000001	-0.07966062	0.22146850	-0.01901771
0.40000001	0.80000001	-0.07519728	0.16756331	-0.02976899
0.50000001	0.80000001	-0.08937677	0.08897184	-0.04076552
0.60000001	0.80000001	-0.11614387	0.01938893	-0.03848887
0.70000001	0.80000001	-0.14750772	-0.05745553	-0.01931457
0.80000001	0.80000001	-0.15799894	-0.16225543	0.01961460
0.90000001	0.80000001	-0.10093932	-0.28915313	0.06945669
1.00000001	0.80000001	-0.00000008	-0.29016928	0.09507598
1.10000002	0.80000001	0.00000000	0.29016928	0.00000000
0.00000000	0.90000001	-0.00000007	-0.18213102	0.00000000
0.10000000	0.90000001	-0.07656162	0.18213102	-0.03774413
0.20000000	0.90000001	-0.03566839	0.15514163	-0.01549403
0.30000000	0.90000001	0.05542912	0.13036174	-0.00853968
0.40000001	0.90000001	0.12774183	0.09524499	-0.02293580
0.50000001	0.90000001	0.16231111	0.05440116	-0.03869830
0.60000001	0.90000001	0.16294690	0.01875605	-0.03956164
0.70000001	0.90000001	0.12272280	-0.01722450	-0.01904705
0.80000001	0.90000001	0.03106659	-0.07058894	0.03044556
0.90000001	0.90000001	-0.03917715	-0.21889667	0.12748186
1.00000001	0.90000001	-0.00000008	-0.32933240	0.22875886
1.10000002	0.90000001	0.00000000	0.32933240	0.00000000
0.00000000	1.00000001	-0.00000007	0.00000000	0.00000000
0.10000000	1.00000001	0.18211747	0.00000007	-0.09924035
0.20000000	1.00000001	0.33724709	0.00000007	-0.01450861
0.30000000	1.00000001	0.46759958	0.00000005	0.00522326
0.40000001	1.00000001	0.56283906	0.00000003	-0.00712005
0.50000001	1.00000001	0.61723899	0.00000001	-0.02424276
0.60000001	1.00000001	0.63599816	-0.00000002	-0.02709865
0.70000001	1.00000001	0.61878079	-0.00000004	-0.00595705
0.80000001	1.00000001	0.54820228	-0.00000006	0.05214432
0.90000001	1.00000001	0.32931839	-0.00000007	0.18193702
1.00000001	1.00000001	-0.00000008	-0.00000008	0.39378753
1.10000002	1.00000001	0.00000000	0.00000000	0.00000000
0.00000000	1.10000002	2.00000000	-0.00000000	0.00000000
0.10000000	1.10000002	1.81788254	0.00000000	0.00000000
0.20000000	1.10000002	1.66275293	0.00000000	0.00000000
0.30000000	1.10000002	1.53240044	0.00000000	0.00000000
0.40000001	1.10000002	1.43716096	0.00000000	0.00000000
0.50000001	1.10000002	1.38276103	0.00000000	0.00000000
0.60000001	1.10000002	1.36400186	0.00000000	0.00000000
0.70000001	1.10000002	1.38121923	0.00000000	0.00000000
0.80000001	1.10000002	1.45179773	0.00000000	0.00000000
0.90000001	1.10000002	1.67068162	0.00000000	0.00000000
1.00000001	1.10000002	2.00000000	0.00000000	0.00000000
1.10000002	1.10000002	2.00000000	-0.00000000	0.00000000
